<?xml version="1.0"?>
<VTKFile type="UnstructuredGrid" version="0.1" byte_order="LittleEndian" >
<UnstructuredGrid>
<Piece NumberOfPoints="4961" NumberOfCells="4000" >
<PointData Tensors="Vector" >
<DataArray type="Float64" Name="displacement" NumberOfComponents="3" format="ascii" >
0.000206115999697237 -0.0329802000009186 -0.0129649500024857
0.003846675 -0.031370350000313 -0.0130913000024406
0.00357338 -0.19604 -0.0351599
0.00228533 -0.198308 -0.0345892
-0.00260358 -0.0313105435 0.0131673500024406
0.00023902 -0.197608 0.0359947
0.000236599 -0.200216 0.0361544
0.000736985000302762 -0.03404 0.0134889000024857
-6.05525E-13 -1.8371E-12 -4.9714E-12
0.00427768 -6.26054E-13 -4.88123E-12
6.05525E-13 -0.003235 4.9714E-12
-0.00298721 -0.000241187 4.88123E-12
0.000570171899727514 -0.032819215000858 -0.0129775850024812
0.00093422779975779 -0.0326582300007974 -0.0129902200024767
0.00129828369978807 -0.0324972450007369 -0.0130028550024722
0.00166233959981834 -0.0323362600006763 -0.0130154900024677
0.00202639549984862 -0.0321752750006158 -0.0130281250024632
0.00239045139987889 -0.0320142900005552 -0.0130407600024586
0.00275450729990917 -0.0318533050004947 -0.0130533950024541
0.00311856319993945 -0.0316923200004341 -0.0130660300024496
0.00348261909996972 -0.0315313350003736 -0.0130786650024451
0.0038035745 -0.0345073850002817 -0.0144004300021966
0.003760474 -0.0376444200002504 -0.0157095600019525
0.0037173735 -0.0407814550002191 -0.0170186900017084
0.003674273 -0.0439184900001878 -0.0183278200014644
0.0036311725 -0.0470555250001565 -0.0196369500012203
0.003588072 -0.0501925600001252 -0.0209460800009762
0.0035449715 -0.0533295950000939 -0.0222552100007322
0.003501871 -0.0564666300000626 -0.0235643400004881
0.0034587705 -0.0596036650000313 -0.0248734700002441
0.00341567 -0.0627407 -0.0261826
0.0034235555 -0.069405665 -0.026631465
0.003431441 -0.07607063 -0.02708033
0.0034393265 -0.082735595 -0.027529195
0.003447212 -0.08940056 -0.02797806
0.0034550975 -0.096065525 -0.028426925
0.003462983 -0.10273049 -0.02887579
0.0034708685 -0.109395455 -0.029324655
0.003478754 -0.11606042 -0.02977352
0.0034866395 -0.122725385 -0.030222385
0.003494525 -0.12939035 -0.03067125
0.0035024105 -0.136055315 -0.031120115
0.003510296 -0.14272028 -0.03156898
0.0035181815 -0.149385245 -0.032017845
0.003526067 -0.15605021 -0.03246671
0.0035339525 -0.162715175 -0.032915575
0.003541838 -0.16938014 -0.03336444
0.0035497235 -0.176045105 -0.033813305
0.003557609 -0.18271007 -0.03426217
0.0035654945 -0.189375035 -0.034711035
0.003444575 -0.1962668 -0.03510283
0.00331577 -0.1964936 -0.03504576
0.003186965 -0.1967204 -0.03498869
0.00305816 -0.1969472 -0.03493162
0.002929355 -0.197174 -0.03487455
0.00280055 -0.1974008 -0.03481748
0.002671745 -0.1976276 -0.03476041
0.00254294 -0.1978544 -0.03470334
0.002414135 -0.1980812 -0.03464627
0.0021916751 -0.19169062 -0.034156235
0.0020980202 -0.18507324 -0.03372327
0.0020043653 -0.17845586 -0.033290305
0.0019107104 -0.17183848 -0.03285734
0.0018170555 -0.1652211 -0.032424375
0.0017234006 -0.15860372 -0.03199141
0.0016297457 -0.15198634 -0.031558445
0.0015360908 -0.14536896 -0.03112548
0.0014424359 -0.13875158 -0.030692515
0.001348781 -0.1321342 -0.03025955
0.0012551261 -0.12551682 -0.029826585
0.0011614712 -0.11889944 -0.02939362
0.0010678163 -0.11228206 -0.028960655
0.0009741614 -0.10566468 -0.02852769
0.0008805065 -0.0990473 -0.028094725
0.0007868516 -0.09242992 -0.02766176
0.0006931967 -0.08581254 -0.027228795
0.0005995418 -0.07919516 -0.02679583
0.0005058869 -0.07257778 -0.026362865
0.000412232 -0.0659604 -0.0259299
0.000391620399969724 -0.0626623800000919 -0.0246334050002486
0.000371008799939448 -0.0593643600001837 -0.0233369100004971
0.000350397199909171 -0.0560663400002756 -0.0220404150007457
0.000329785599878895 -0.0527683200003674 -0.0207439200009943
0.000309173999848619 -0.0494703000004593 -0.0194474250012429
0.000288562399818342 -0.0461722800005511 -0.0181509300014914
0.000267950799788066 -0.042874260000643 -0.01685443500174
0.00024733919975779 -0.0395762400007348 -0.0155579400019886
0.000226727599727514 -0.0362782200008267 -0.0142614450022371
-0.00226952349996972 -0.03158348915 0.0131995050024451
-0.00193546699993945 -0.0318564348 0.0132316600024496
-0.00160141049990917 -0.03212938045 0.0132638150024541
-0.00126735399987889 -0.0324023261 0.0132959700024586
-0.000933297499848619 -0.03267527175 0.0133281250024632
-0.000599240999818343 -0.0329482174 0.0133602800024677
-0.000265184499788066 -0.03322116305 0.0133924350024722
6.887200024221E-5 -0.0334941087 0.0134245900024767
0.000402928500272486 -0.03376705435 0.0134567450024812
0.0001160715 -0.190846595 0.0355117
-6.87699999999995E-6 -0.18408519 0.0350287
-0.0001298255 -0.177323785 0.0345457
-0.000252774 -0.17056238 0.0340627
-0.0003757225 -0.163800975 0.0335797
-0.000498671 -0.15703957 0.0330967
-0.0006216195 -0.150278165 0.0326137
-0.000744568 -0.14351676 0.0321307
-0.0008675165 -0.136755355 0.0316477
-0.000990465 -0.12999395 0.0311647
-0.0011134135 -0.123232545 0.0306817
-0.001236362 -0.11647114 0.0301987
-0.0013593105 -0.109709735 0.0297157
-0.001482259 -0.10294833 0.0292327
-0.0016052075 -0.096186925 0.0287497
-0.001728156 -0.08942552 0.0282667
-0.0018511045 -0.082664115 0.0277837
-0.001974053 -0.07590271 0.0273007
-0.0020970015 -0.069141305 0.0268177
-0.00221995 -0.0623799 0.0263347
-0.002258313 -0.05927296435 0.0250179650002441
-0.002296676 -0.0561660287 0.0237012300004881
-0.002335039 -0.05305909305 0.0223844950007322
-0.002373402 -0.0499521574 0.0210677600009762
-0.002411765 -0.04684522175 0.0197510250012203
-0.002450128 -0.0437382861 0.0184342900014644
-0.002488491 -0.04063135045 0.0171175550017084
-0.002526854 -0.0375244148 0.0158008200019525
-0.002565217 -0.03441747915 0.0144840850021966
0.0002368411 -0.1999552 0.03613843
0.0002370832 -0.1996944 0.03612246
0.0002373253 -0.1994336 0.03610649
0.0002375674 -0.1991728 0.03609052
0.0002378095 -0.198912 0.03607455
0.0002380516 -0.1986512 0.03605858
0.0002382937 -0.1983904 0.03604261
0.0002385358 -0.1981296 0.03602664
0.0002387779 -0.1978688 0.03601067
0.000810683500272486 -0.0371205 0.0148377900022371
0.00088438200024221 -0.040201 0.0161866800019886
0.000958080500211934 -0.0432815 0.01753557000174
0.00103177900018166 -0.046362 0.0188844600014914
0.00110547750015138 -0.0494425 0.0202333500012429
0.00117917600012111 -0.052523 0.0215822400009943
0.00125287450009083 -0.0556035 0.0229311300007457
0.00132657300006055 -0.058684 0.0242800200004971
0.00140027150003028 -0.0617645 0.0256289100002486
0.00147397 -0.064845 0.0269778
0.00141210145 -0.07161355 0.02743663
0.0013502329 -0.0783821 0.02789546
0.00128836435 -0.08515065 0.02835429
0.0012264958 -0.0919192 0.02881312
0.00116462725 -0.09868775 0.02927195
0.0011027587 -0.1054563 0.02973078
0.00104089015 -0.11222485 0.03018961
0.0009790216 -0.1189934 0.03064844
0.00091715305 -0.12576195 0.03110727
0.0008552845 -0.1325305 0.0315661
0.00079341595 -0.13929905 0.03202493
0.0007315474 -0.1460676 0.03248376
0.00066967885 -0.15283615 0.03294259
0.0006078103 -0.1596047 0.03340142
0.00054594175 -0.16637325 0.03386025
0.0004840732 -0.1731418 0.03431908
0.00042220465 -0.17991035 0.03477791
0.0003603361 -0.1866789 0.03523674
0.00029846755 -0.19344745 0.03569557
0.0020804569 -0.1984988 -0.02751484
0.0018755838 -0.1986896 -0.02044048
0.0016707107 -0.1988804 -0.01336612
0.0014658376 -0.1990712 -0.00629176
0.0012609645 -0.199262 0.000782600000000001
0.0010560914 -0.1994528 0.00785696
0.0008512183 -0.1996436 0.01493132
0.0006463452 -0.1998344 0.02200568
0.0004414721 -0.2000252 0.02908004
0.00068389810024221 -0.0339340200000919 0.0108435150019886
0.000630811200181657 -0.0338280400001837 0.00819813000149142
0.000577724300121105 -0.0337220600002756 0.00555274500099428
0.000524637400060553 -0.0336160800003674 0.00290736000049714
0.0004715505 -0.0335101000004593 0.000261975
0.000418463599939448 -0.0334041200005511 -0.00238341000049714
0.000365376699878895 -0.033298140000643 -0.00502879500099428
0.000312289799818343 -0.0331921600007348 -0.00767418000149142
0.00025920289975779 -0.0330861800008267 -0.0103195650019886
0.000572456 -0.1974512 0.02887924
0.000905892 -0.1972944 0.02176378
0.001239328 -0.1971376 0.01464832
0.001572764 -0.1969808 0.00753286
0.0019062 -0.196824 0.000417399999999998
0.002239636 -0.1966672 -0.00669806
0.002573072 -0.1965104 -0.01381352
0.002906508 -0.1963536 -0.02092898
0.003239944 -0.1961968 -0.02804444
0.0032016495 -0.0313643693502817 -0.0104654350019525
0.002556624 -0.0313583887002504 -0.00783957000146437
0.0019115985 -0.0313524080502191 -0.00521370500097625
0.001266573 -0.0313464274001878 -0.00258784000048812
0.0006215475 -0.0313404467501565 3.80249999999997E-5
-2.34779999999999E-5 -0.0313344661001252 0.00266389000048812
-0.0006685035 -0.0313284854500939 0.00528975500097625
-0.001313529 -0.0313225048000626 0.00791562000146437
-0.0019585545 -0.0313165241500313 0.0105414850019525
0.000185504399666961 -0.0296821800010104 -0.0116684550027343
0.000164892799636685 -0.0263841600011023 -0.0103719600029828
0.000144281199606409 -0.0230861400011941 -0.00907546500323141
0.000123669599576133 -0.019788120001286 -0.00777897000347998
0.000103057999545856 -0.0164901000013778 -0.00648247500372855
8.244639951558E-5 -0.0131920800014697 -0.00518598000397712
6.18347994853038E-5 -0.00989406000156154 -0.00388948500422569
4.12231994550275E-5 -0.00659604000165339 -0.00259299000447426
2.06115994247512E-5 -0.00329802000174524 -0.00129649500472283
0.000427767999455027 -1.7159954E-12 -4.962383E-12
0.00085553599951558 -1.5948908E-12 -4.953366E-12
0.00128330399957613 -1.4737862E-12 -4.944349E-12
0.00171107199963669 -1.3526816E-12 -4.935332E-12
0.00213883999969724 -1.231577E-12 -4.926315E-12
0.00256660799975779 -1.1104724E-12 -4.917298E-12
0.00299437599981834 -9.893678E-13 -4.908281E-12
0.0034221439998789 -8.682632E-13 -4.899264E-12
0.00384991199993945 -7.471586E-13 -4.890247E-12
0.0042345795 -0.00313703500059475 -0.00130913000463717
0.004191479 -0.00627407000056345 -0.00261826000439311
0.0041483785 -0.00941110500053215 -0.00392739000414905
0.004105278 -0.0125481400005008 -0.00523652000390498
0.0040621775 -0.0156851750004695 -0.00654565000366092
0.004019077 -0.0188222100004382 -0.00785478000341686
0.0039759765 -0.0219592450004069 -0.0091639100031728
0.003932876 -0.0250962800003756 -0.0104730400029287
0.0038897755 -0.0282333150003443 -0.0117821700026847
7.36985005752487E-5 -0.0063155 0.00134889000472283
0.000147397000544972 -0.009396 0.00269778000447426
0.000221095500514696 -0.0124765 0.00404667000422569
0.00029479400048442 -0.015557 0.00539556000397712
0.000368492500454144 -0.0186375 0.00674445000372855
0.000442191000423867 -0.021718 0.00809334000347998
0.000515889500393591 -0.0247985 0.00944223000323141
0.000589588000363315 -0.027879 0.0107911200029828
0.000663286500333039 -0.0309595 0.0121400100027343
-0.00268848899993945 -0.0005405683 4.890247E-12
-0.0023897679998789 -0.0008399496 4.899264E-12
-0.00209104699981834 -0.0011393309 4.908281E-12
-0.00179232599975779 -0.0014387122 4.917298E-12
-0.00149360499969724 -0.0017380935 4.926315E-12
-0.00119488399963669 -0.0020374748 4.935332E-12
-0.000896162999576133 -0.0023368561 4.944349E-12
-0.00059744199951558 -0.0026362374 4.953366E-12
-0.000298720999455027 -0.0029356187 4.962383E-12
-0.002641943 -0.02820360785 0.0118506150026847
-0.002680306 -0.0250966722 0.0105338800029287
-0.002718669 -0.02198973655 0.0092171450031728
-0.002757032 -0.0188828009 0.00790041000341686
-0.002795395 -0.01577586525 0.00658367500366092
-0.002833758 -0.0126689296 0.00526694000390498
-0.002872121 -0.00956199395 0.00395020500414905
-0.002910484 -0.0064550583 0.00263347000439311
-0.002948847 -0.00334812265 0.00131673500463717
0.003551191 -2.41187005634486E-5 -3.904984E-12
0.002824702 -4.82374005008432E-5 -2.928738E-12
0.002098213 -7.23561004382378E-5 -1.952492E-12
0.001371724 -9.64748003756324E-5 -9.76246E-13
0.000645235 -0.000120593500313027 0
-8.1254E-5 -0.000144712200250422 9.76246E-13
-0.000807743 -0.000168830900187816 1.952492E-12
-0.001534232 -0.000192949600125211 2.928738E-12
-0.002260721 -0.000217068300062605 3.904984E-12
4.8442E-13 -0.00291150000018371 3.97712E-12
3.63315E-13 -0.00258800000036742 2.98284E-12
2.4221E-13 -0.00226450000055113 1.98856E-12
1.21105E-13 -0.00194100000073484 9.9428E-13
0 -0.00161750000091855 0
-1.21105E-13 -0.00129400000110226 -9.9428E-13
-2.4221E-13 -0.00097050000128597 -1.98856E-12
-3.63315E-13 -0.00064700000146968 -2.98284E-12
-4.8442E-13 -0.00032350000165339 -3.97712E-12
0.000584412289754762 -0.0361011365007722 -0.0142753435022331
0.000942096979782011 -0.0359240530007177 -0.014289242002229
0.00129978166980926 -0.0357469695006632 -0.014303140502225
0.00165746635983651 -0.0355698860006087 -0.0143170390022209
0.00201515104986376 -0.0353928025005542 -0.0143309375022168
0.00237283573989101 -0.0352157190004997 -0.0143448360022128
0.00273052042991825 -0.0350386355004452 -0.0143587345022087
0.0030882051199455 -0.0348615520003907 -0.0143726330022047
0.00344588980997275 -0.0346844685003362 -0.0143865315022006
0.000598652679782011 -0.0393830580006864 -0.015573102001985
0.000949966159806232 -0.039189876000638 -0.0155882640019813
0.00130127963983045 -0.0389966940005895 -0.0156034260019777
0.00165259311985467 -0.0388035120005411 -0.0156185880019741
0.0020039065998789 -0.0386103300004926 -0.0156337500019705
0.00235522007990312 -0.0384171480004442 -0.0156489120019669
0.00270653355992734 -0.0382239660003957 -0.0156640740019633
0.00305784703995156 -0.0380307840003473 -0.0156792360019597
0.00340916051997578 -0.0378376020002989 -0.0156943980019561
0.000612893069809259 -0.0426649795006006 -0.0168708605017368
0.000957835339830453 -0.0424556990005582 -0.0168872860017337
0.00130277760985165 -0.0422464185005158 -0.0169037115017305
0.00164771987987284 -0.0420371380004734 -0.0169201370017274
0.00199266214989403 -0.0418278575004311 -0.0169365625017242
0.00233760441991523 -0.0416185770003887 -0.0169529880017211
0.00268254668993642 -0.0414092965003463 -0.0169694135017179
0.00302748895995761 -0.0412000160003039 -0.0169858390017147
0.00337243122997881 -0.0409907355002615 -0.0170022645017116
0.000627133459836508 -0.0459469010005148 -0.0181686190014887
0.000965704519854674 -0.0457215220004785 -0.018186308001486
0.00130427557987284 -0.0454961430004421 -0.0182039970014833
0.00164284663989101 -0.0452707640004058 -0.0182216860014806
0.00198141769990917 -0.0450453850003695 -0.0182393750014779
0.00231998875992734 -0.0448200060003331 -0.0182570640014752
0.0026585598199455 -0.0445946270002968 -0.0182747530014725
0.00299713087996367 -0.0443692480002605 -0.0182924420014698
0.00333570193998183 -0.0441438690002241 -0.0183101310014671
0.000641373849863757 -0.049228822500429 -0.0194663775012406
0.000973573699878895 -0.0489873450003987 -0.0194853300012383
0.00130577354989403 -0.0487458675003684 -0.0195042825012361
0.00163797339990917 -0.0485043900003382 -0.0195232350012338
0.00197017324992431 -0.0482629125003079 -0.0195421875012316
0.00230237309993945 -0.0480214350002776 -0.0195611400012293
0.00263457294995459 -0.0477799575002473 -0.0195800925012271
0.00296677279996972 -0.0475384800002171 -0.0195990450012248
0.00329897264998486 -0.0472970025001868 -0.0196179975012226
0.000655614239891005 -0.0525107440003432 -0.0207641360009925
0.000981442879903116 -0.052253168000319 -0.0207843520009907
0.00130727151991523 -0.0519955920002948 -0.0208045680009889
0.00163310015992734 -0.0517380160002705 -0.0208247840009871
0.00195892879993945 -0.0514804400002463 -0.0208450000009853
0.00228475743995156 -0.0512228640002221 -0.0208652160009835
0.00261058607996367 -0.0509652880001979 -0.0208854320009817
0.00293641471997578 -0.0507077120001737 -0.0209056480009799
0.00326224335998789 -0.0504501360001494 -0.020925864000978
0.000669854629918254 -0.0557926655002574 -0.0220618945007444
0.000989312059927337 -0.0555189910002392 -0.022083374000743
0.00130876948993642 -0.0552453165002211 -0.0221048535007417
0.0016282269199455 -0.0549716420002029 -0.0221263330007403
0.00194768434995459 -0.0546979675001847 -0.0221478125007389
0.00226714177996367 -0.0544242930001666 -0.0221692920007376
0.00258659920997275 -0.0541506185001484 -0.0221907715007362
0.00290605663998183 -0.0538769440001302 -0.0222122510007349
0.00322551406999092 -0.0536032695001121 -0.0222337305007335
0.000684095019945503 -0.0590745870001716 -0.0233596530004962
0.000997181239951558 -0.0587848140001595 -0.0233823960004953
0.00131026745995761 -0.0584950410001474 -0.0234051390004944
0.00162335367996367 -0.0582052680001353 -0.0234278820004935
0.00193643989996972 -0.0579154950001232 -0.0234506250004926
0.00224952611997578 -0.057625722000111 -0.0234733680004917
0.00256261233998183 -0.0573359490000989 -0.0234961110004908
0.00287569855998789 -0.0570461760000868 -0.0235188540004899
0.00318878477999394 -0.0567564030000747 -0.023541597000489
0.000698335409972751 -0.0623565085000858 -0.0246574115002481
0.00100505041997578 -0.0620506370000797 -0.0246814180002477
0.00131176542997881 -0.0617447655000737 -0.0247054245002472
0.00161848043998183 -0.0614388940000676 -0.0247294310002468
0.00192519544998486 -0.0611330225000616 -0.0247534375002463
0.00223191045998789 -0.0608271510000555 -0.0247774440002459
0.00253862546999092 -0.0605212795000495 -0.0248014505002454
0.00284534047999394 -0.0602154080000434 -0.024825457000245
0.00315205548999697 -0.0599095365000374 -0.0248494635002445
0.0007125758 -0.06563843 -0.02595517
0.0010129196 -0.06531646 -0.02598044
0.0013132634 -0.06499449 -0.02600571
0.0016136072 -0.06467252 -0.02603098
0.001913951 -0.06435055 -0.02605625
0.0022142948 -0.06402858 -0.02608152
0.0025146386 -0.06370661 -0.02610679
0.0028149824 -0.06338464 -0.02613206
0.0031153262 -0.06306267 -0.02615733
0.00079765376 -0.0722605685 -0.026389725
0.00108942062 -0.071943357 -0.026416585
0.00138118748 -0.0716261455 -0.026443445
0.00167295434 -0.071308934 -0.026470305
0.0019647212 -0.0709917225 -0.026497165
0.00225648806 -0.070674511 -0.026524025
0.00254825492 -0.0703572995 -0.026550885
0.00284002178 -0.070040088 -0.026577745
0.00313178864 -0.0697228765 -0.026604605
0.00088273172 -0.078882707 -0.02682428
0.00116592164 -0.078570254 -0.02685273
0.00144911156 -0.078257801 -0.02688118
0.00173230148 -0.077945348 -0.02690963
0.0020154914 -0.077632895 -0.02693808
0.00229868132 -0.077320442 -0.02696653
0.00258187124 -0.077007989 -0.02699498
0.00286506116 -0.076695536 -0.02702343
0.00314825108 -0.076383083 -0.02705188
0.00096780968 -0.0855048455 -0.027258835
0.00124242266 -0.085197151 -0.027288875
0.00151703564 -0.0848894565 -0.027318915
0.00179164862 -0.084581762 -0.027348955
0.0020662616 -0.0842740675 -0.027378995
0.00234087458 -0.083966373 -0.027409035
0.00261548756 -0.0836586785 -0.027439075
0.00289010054 -0.083350984 -0.027469115
0.00316471352 -0.0830432895 -0.027499155
0.00105288764 -0.092126984 -0.02769339
0.00131892368 -0.091824048 -0.02772502
0.00158495972 -0.091521112 -0.02775665
0.00185099576 -0.091218176 -0.02778828
0.0021170318 -0.09091524 -0.02781991
0.00238306784 -0.090612304 -0.02785154
0.00264910388 -0.090309368 -0.02788317
0.00291513992 -0.090006432 -0.0279148
0.00318117596 -0.089703496 -0.02794643
0.0011379656 -0.0987491225 -0.028127945
0.0013954247 -0.098450945 -0.028161165
0.0016528838 -0.0981527675 -0.028194385
0.0019103429 -0.09785459 -0.028227605
0.002167802 -0.0975564125 -0.028260825
0.0024252611 -0.097258235 -0.028294045
0.0026827202 -0.0969600575 -0.028327265
0.0029401793 -0.09666188 -0.028360485
0.0031976384 -0.0963637025 -0.028393705
0.00122304356 -0.105371261 -0.0285625
0.00147192572 -0.105077842 -0.02859731
0.00172080788 -0.104784423 -0.02863212
0.00196969004 -0.104491004 -0.02866693
0.0022185722 -0.104197585 -0.02870174
0.00246745436 -0.103904166 -0.02873655
0.00271633652 -0.103610747 -0.02877136
0.00296521868 -0.103317328 -0.02880617
0.00321410084 -0.103023909 -0.02884098
0.00130812152 -0.1119933995 -0.028997055
0.00154842674 -0.111704739 -0.029033455
0.00178873196 -0.1114160785 -0.029069855
0.00202903718 -0.111127418 -0.029106255
0.0022693424 -0.1108387575 -0.029142655
0.00250964762 -0.110550097 -0.029179055
0.00274995284 -0.1102614365 -0.029215455
0.00299025806 -0.109972776 -0.029251855
0.00323056328 -0.1096841155 -0.029288255
0.00139319948 -0.118615538 -0.02943161
0.00162492776 -0.118331636 -0.0294696
0.00185665604 -0.118047734 -0.02950759
0.00208838432 -0.117763832 -0.02954558
0.0023201126 -0.11747993 -0.02958357
0.00255184088 -0.117196028 -0.02962156
0.00278356916 -0.116912126 -0.02965955
0.00301529744 -0.116628224 -0.02969754
0.00324702572 -0.116344322 -0.02973553
0.00147827744 -0.1252376765 -0.029866165
0.00170142878 -0.124958533 -0.029905745
0.00192458012 -0.1246793895 -0.029945325
0.00214773146 -0.124400246 -0.029984905
0.0023708828 -0.1241211025 -0.030024485
0.00259403414 -0.123841959 -0.030064065
0.00281718548 -0.1235628155 -0.030103645
0.00304033682 -0.123283672 -0.030143225
0.00326348816 -0.1230045285 -0.030182805
0.0015633554 -0.131859815 -0.03030072
0.0017779298 -0.13158543 -0.03034189
0.0019925042 -0.131311045 -0.03038306
0.0022070786 -0.13103666 -0.03042423
0.002421653 -0.130762275 -0.0304654
0.0026362274 -0.13048789 -0.03050657
0.0028508018 -0.130213505 -0.03054774
0.0030653762 -0.12993912 -0.03058891
0.0032799506 -0.129664735 -0.03063008
0.00164843336 -0.1384819535 -0.030735275
0.00185443082 -0.138212327 -0.030778035
0.00206042828 -0.1379427005 -0.030820795
0.00226642574 -0.137673074 -0.030863555
0.0024724232 -0.1374034475 -0.030906315
0.00267842066 -0.137133821 -0.030949075
0.00288441812 -0.1368641945 -0.030991835
0.00309041558 -0.136594568 -0.031034595
0.00329641304 -0.1363249415 -0.031077355
0.00173351132 -0.145104092 -0.03116983
0.00193093184 -0.144839224 -0.03121418
0.00212835236 -0.144574356 -0.03125853
0.00232577288 -0.144309488 -0.03130288
0.0025231934 -0.14404462 -0.03134723
0.00272061392 -0.143779752 -0.03139158
0.00291803444 -0.143514884 -0.03143593
0.00311545496 -0.143250016 -0.03148028
0.00331287548 -0.142985148 -0.03152463
0.00181858928 -0.1517262305 -0.031604385
0.00200743286 -0.151466121 -0.031650325
0.00219627644 -0.1512060115 -0.031696265
0.00238512002 -0.150945902 -0.031742205
0.0025739636 -0.1506857925 -0.031788145
0.00276280718 -0.150425683 -0.031834085
0.00295165076 -0.1501655735 -0.031880025
0.00314049434 -0.149905464 -0.031925965
0.00332933792 -0.1496453545 -0.031971905
0.00190366724 -0.158348369 -0.03203894
0.00208393388 -0.158093018 -0.03208647
0.00226420052 -0.157837667 -0.032134
0.00244446716 -0.157582316 -0.03218153
0.0026247338 -0.157326965 -0.03222906
0.00280500044 -0.157071614 -0.03227659
0.00298526708 -0.156816263 -0.03232412
0.00316553372 -0.156560912 -0.03237165
0.00334580036 -0.156305561 -0.03241918
0.0019887452 -0.1649705075 -0.032473495
0.0021604349 -0.164719915 -0.032522615
0.0023321246 -0.1644693225 -0.032571735
0.0025038143 -0.16421873 -0.032620855
0.002675504 -0.1639681375 -0.032669975
0.0028471937 -0.163717545 -0.032719095
0.0030188834 -0.1634669525 -0.032768215
0.0031905731 -0.16321636 -0.032817335
0.0033622628 -0.1629657675 -0.032866455
0.00207382316 -0.171592646 -0.03290805
0.00223693592 -0.171346812 -0.03295876
0.00240004868 -0.171100978 -0.03300947
0.00256316144 -0.170855144 -0.03306018
0.0027262742 -0.17060931 -0.03311089
0.00288938696 -0.170363476 -0.0331616
0.00305249972 -0.170117642 -0.03321231
0.00321561248 -0.169871808 -0.03326302
0.00337872524 -0.169625974 -0.03331373
0.00215890112 -0.1782147845 -0.033342605
0.00231343694 -0.177973709 -0.033394905
0.00246797276 -0.1777326335 -0.033447205
0.00262250858 -0.177491558 -0.033499505
0.0027770444 -0.1772504825 -0.033551805
0.00293158022 -0.177009407 -0.033604105
0.00308611604 -0.1767683315 -0.033656405
0.00324065186 -0.176527256 -0.033708705
0.00339518768 -0.1762861805 -0.033761005
0.00224397908 -0.184836923 -0.03377716
0.00238993796 -0.184600606 -0.03383105
0.00253589684 -0.184364289 -0.03388494
0.00268185572 -0.184127972 -0.03393883
0.0028278146 -0.183891655 -0.03399272
0.00297377348 -0.183655338 -0.03404661
0.00311973236 -0.183419021 -0.0341005
0.00326569124 -0.183182704 -0.03415439
0.00341165012 -0.182946387 -0.03420828
0.00232905704 -0.1914590615 -0.034211715
0.00246643898 -0.191227503 -0.034267195
0.00260382092 -0.1909959445 -0.034322675
0.00274120286 -0.190764386 -0.034378155
0.0028785848 -0.1905328275 -0.034433635
0.00301596674 -0.190301269 -0.034489115
0.00315334868 -0.1900697105 -0.034544595
0.00329073062 -0.189838152 -0.034600075
0.00342811256 -0.1896065935 -0.034655555
0.000473093450245238 -0.036850197915 0.0148024195022331
0.000135503400217989 -0.03657989583 0.014767049002229
-0.00020208664980926 -0.036309593745 0.014731678502225
-0.000539676699836508 -0.03603929166 0.0146963080022209
-0.000877266749863757 -0.035768989575 0.0146609375022168
-0.00121485679989101 -0.03549868749 0.0146255670022128
-0.00155244684991825 -0.035228385405 0.0145901965022087
-0.0018900368999455 -0.03495808332 0.0145548260022047
-0.00222762694997275 -0.034687781235 0.0145194555022006
0.000543258400217989 -0.03993334148 0.016148094001985
0.000202134800193768 -0.03966568296 0.0161095080019813
-0.000138988799830453 -0.03939802444 0.0160709220019777
-0.000480112399854674 -0.03913036592 0.0160323360019741
-0.000821235999878895 -0.0388627074 0.0159937500019705
-0.00116235959990312 -0.03859504888 0.0159551640019669
-0.00150348319992734 -0.03832739036 0.0159165780019633
-0.00184460679995156 -0.03805973184 0.0158779920019597
-0.00218573039997578 -0.03779207332 0.0158394060019561
0.00061342335019074 -0.043016485045 0.0174937685017368
0.000268766200169547 -0.04275147009 0.0174519670017337
-7.58909498516463E-5 -0.042486455135 0.0174101655017305
-0.00042054809987284 -0.04222144018 0.0173683640017274
-0.000765205249894033 -0.041956425225 0.0173265625017242
-0.00110986239991523 -0.04169141027 0.0172847610017211
-0.00145451954993642 -0.041426395315 0.0172429595017179
-0.00179917669995761 -0.04116138036 0.0172011580017147
-0.00214383384997881 -0.040896365405 0.0171593565017116
0.000683588300163492 -0.04609962861 0.0188394430014887
0.000335397600145326 -0.04583725722 0.018794426001486
-1.27930998728398E-5 -0.04557488583 0.0187494090014833
-0.000360983799891006 -0.04531251444 0.0187043920014806
-0.000709174499909171 -0.04505014305 0.0186593750014779
-0.00105736519992734 -0.04478777166 0.0186143580014752
-0.0014055558999455 -0.04452540027 0.0185693410014725
-0.00175374659996367 -0.04426302888 0.0185243240014698
-0.00210193729998183 -0.04400065749 0.0184793070014671
0.000753753250136243 -0.049182772175 0.0201851175012406
0.000402029000121105 -0.04892304435 0.0201368850012383
5.03047501059669E-5 -0.048663316525 0.0200886525012361
-0.000301419499909171 -0.0484035887 0.0200404200012338
-0.000653143749924309 -0.048143860875 0.0199921875012316
-0.00100486799993945 -0.04788413305 0.0199439550012293
-0.00135659224995459 -0.047624405225 0.0198957225012271
-0.00170831649996972 -0.0473646774 0.0198474900012248
-0.00206004074998486 -0.047104949575 0.0197992575012226
0.000823918200108994 -0.05226591574 0.0215307920009925
0.000468660400096884 -0.05200883148 0.0214793440009907
0.000113402600084774 -0.05175174722 0.0214278960009889
-0.000241855199927337 -0.05149466296 0.0213764480009871
-0.000597112999939448 -0.0512375787 0.0213250000009853
-0.000952370799951558 -0.05098049444 0.0212735520009835
-0.00130762859996367 -0.05072341018 0.0212221040009817
-0.00166288639997578 -0.05046632592 0.0211706560009799
-0.00201814419998789 -0.05020924166 0.021119208000978
0.000894083150081746 -0.055349059305 0.0228764665007444
0.000535291800072663 -0.05509461861 0.022821803000743
0.00017650045006358 -0.054840177915 0.0227671395007417
-0.000182290899945503 -0.05458573722 0.0227124760007403
-0.000541082249954586 -0.054331296525 0.0226578125007389
-0.000899873599963669 -0.05407685583 0.0226031490007376
-0.00125866494997275 -0.053822415135 0.0225484855007362
-0.00161745629998183 -0.05356797444 0.0224938220007349
-0.00197624764999092 -0.053313533745 0.0224391585007335
0.000964248100054497 -0.05843220287 0.0242221410004962
0.000601923200048442 -0.05818040574 0.0241642620004953
0.000239598300042387 -0.05792860861 0.0241063830004944
-0.000122726599963668 -0.05767681148 0.0240485040004935
-0.000485051499969724 -0.05742501435 0.0239906250004926
-0.000847376399975779 -0.05717321722 0.0239327460004917
-0.00120970129998183 -0.05692142009 0.0238748670004908
-0.00157202619998789 -0.05666962296 0.0238169880004899
-0.00193435109999394 -0.05641782583 0.023759109000489
0.00103441305002725 -0.061515346435 0.0255678155002481
0.000668554600024221 -0.06126619287 0.0255067210002477
0.000302696150021193 -0.061017039305 0.0254456265002472
-6.31622999818342E-5 -0.06076788574 0.0253845320002468
-0.000429020749984862 -0.060518732175 0.0253234375002463
-0.00079487919998789 -0.06026957861 0.0252623430002459
-0.00116073764999092 -0.060020425045 0.0252012485002454
-0.00152659609999394 -0.05977127148 0.025140154000245
-0.00189245454999697 -0.059522117915 0.0250790595002445
0.001104578 -0.06459849 0.02691349
0.000735186 -0.06435198 0.02684918
0.000365794 -0.06410547 0.02678487
-3.59800000000009E-6 -0.06385896 0.02672056
-0.00037299 -0.06361245 0.02665625
-0.000742382 -0.06336594 0.02659194
-0.001111774 -0.06311943 0.02652763
-0.001481166 -0.06287292 0.02646332
-0.001850558 -0.06262641 0.02639901
0.001061191155 -0.0713663255 0.027374737
0.00071028086 -0.071119101 0.027312844
0.000359370565 -0.0708718765 0.027250951
8.46027000000007E-6 -0.070624652 0.027189058
-0.000342450025 -0.0703774275 0.027127165
-0.00069336032 -0.070130203 0.027065272
-0.001044270615 -0.0698829785 0.027003379
-0.00139518091 -0.069635754 0.026941486
-0.001746091205 -0.0693885295 0.026879593
0.00101780431 -0.078134161 0.027835984
0.00068537572 -0.077886222 0.027776508
0.00035294713 -0.077638283 0.027717032
2.05185400000001E-5 -0.077390344 0.027657556
-0.00031191005 -0.077142405 0.02759808
-0.00064433864 -0.076894466 0.027538604
-0.00097676723 -0.076646527 0.027479128
-0.00130919582 -0.076398588 0.027419652
-0.00164162441 -0.076150649 0.027360176
0.000974417465 -0.0849019965 0.028297231