<?xml version="1.0"?>
<VTKFile type="UnstructuredGrid" version="0.1" byte_order="LittleEndian" >
<UnstructuredGrid>
<Piece NumberOfPoints="4961" NumberOfCells="4000" >
<PointData Tensors="Vector" >
<DataArray type="Float64" Name="displacement" NumberOfComponents="3" format="ascii" >
0.000698608285649408 -0.032623809786175 -0.00359015714356412
0.00124011628569266 -0.032083880750331 -0.00364020000070054
0.00357338 -0.19604 -0.0351599
0.00228533 -0.198308 -0.0345892
-0.000104161999978374 -0.0321467650716269 0.00387621428641482
0.00023902 -0.197608 0.0359947
0.000236599 -0.200216 0.0361544
0.000351633428636306 -0.0328466378930987 0.00395414285784984
-6.05525E-13 -1.8371E-12 -4.9714E-12
0.00427768 -6.26054E-13 -4.88123E-12
6.05525E-13 -0.003235 4.9714E-12
-0.00298721 -0.000241187 4.88123E-12
0.000738502020459453 -0.032581054682831 -0.00361964595563026
0.00078629738226927 -0.0325316644392913 -0.00362620887795098
0.00084166261131539 -0.0324763209725628 -0.00362078651216816
0.000903405411067024 -0.0324163852966093 -0.00361440898909516
0.000969362285671034 -0.032353845268253 -0.00361517857213233
0.00103644075278772 -0.032291115763282 -0.00362593600616306
0.00110086126913157 -0.0322307277263599 -0.00364340371567127
0.00115859837691999 -0.0321749835654846 -0.00365910307741891
0.00120595196848684 -0.0321256679525521 -0.00366173200828533
0.00125070128040644 -0.0364170828487352 -0.00474845719547905
0.00131693352776533 -0.040657684060225 -0.00613108824232824
0.00144134307913529 -0.0447391722573441 -0.00785167644879109
0.0016294294844199 -0.0486085744245483 -0.00998290284477567
0.00188752984699096 -0.0522224806147028 -0.0125915355547213
0.00221711032717702 -0.0555287196437695 -0.0156941781156681
0.00260270990711438 -0.0584309653138619 -0.0191618765215587
0.00299430943828213 -0.0607509562555727 -0.0225810714875773
0.00329939041545057 -0.0622446380998374 -0.0251960700193943
0.00341567 -0.0627407 -0.0261826
0.00330947724800014 -0.0639400262227982 -0.0252249968013301
0.00303403795349089 -0.0674947007819157 -0.0227086286580112
0.00268701709124771 -0.0729130380142776 -0.0194663265002626
0.00235500023545312 -0.0795608357238842 -0.016257299811046
0.00208352405540333 -0.0869961170100833 -0.0135026577597545
0.00188512444275533 -0.0949938155384395 -0.0113467838104238
0.00175599831088455 -0.103444092002665 -0.00979647397149368
0.00168718331008067 -0.112262644273524 -0.00881566496546612
0.00166974042611976 -0.121345097620838 -0.00836969628575991
0.00169661907142857 -0.130556253571429 -0.00844141785714286
0.00176316703283234 -0.139740126086333 -0.0090359228145812
0.0018672150024778 -0.148739460163715 -0.0101819343031355
0.00200900279333417 -0.157415329947427 -0.0119317147162158
0.00219075972746876 -0.165657695335622 -0.0143560119811346
0.00241524121410565 -0.173376618369136 -0.0175229692021043
0.00268180894905399 -0.180462145651164 -0.0214383487670445
0.00297823544421316 -0.186706389472991 -0.0259171414599172
0.00326893397441334 -0.191719105987984 -0.0303955289083465
0.00349020968740752 -0.194959908182258 -0.0338500067629607
0.00348700204498936 -0.195046958573621 -0.0338310038771778
0.00324564427194532 -0.192477563834279 -0.0303200128465965
0.00291957904772105 -0.189441324586099 -0.0260521422595783
0.00259882643367061 -0.187191794660096 -0.0226854145416714
0.00235122528795026 -0.186591355060034 -0.0213733200686106
0.00220849857491875 -0.187911513924469 -0.0225103176787308
0.00216916926535913 -0.190809136768574 -0.0257165622978835
0.00220301318012671 -0.194349293377328 -0.0298556553213684
0.00225889998794679 -0.197221950993039 -0.0332860219818258
0.00225607530007425 -0.197147534002305 -0.0333022132622497
0.00217621431637755 -0.193695322195792 -0.0299078899964815
0.0020669296913467 -0.18840974345173 -0.0255069074862293
0.00194884723006707 -0.181894770077976 -0.0211046998907332
0.0018340197496164 -0.174576097544936 -0.0172553596010522
0.00172694679640337 -0.166674009396605 -0.0141410011125505
0.00162810598889293 -0.158299399918566 -0.0117564025808019
0.00153644890088089 -0.149539608880791 -0.0100350934575144
0.00145050907489274 -0.140502256206107 -0.0089080695228039
0.00136865603571429 -0.131325403571429 -0.008324525
0.0012889485260666 -0.12216743610438 -0.00825684422091204
0.0012088522880416 -0.113187628319117 -0.00870072521958636
0.00112499798668202 -0.104526654280904 -0.00967384555854709
0.00103318127074787 -0.0962961060789881 -0.011211197994966
0.000928970119191144 -0.0885872854449803 -0.0133491195309075
0.000809594024341301 -0.0815112174940802 -0.0160813517519542
0.000677969380716198 -0.0752762986918997 -0.0192649751803649
0.000548494257717192 -0.070272313585574 -0.0224822240667407
0.00044948756266487 -0.067038057133942 -0.0249794919659225
0.000412232 -0.0659604 -0.0259299
0.000438781153427826 -0.065341494912723 -0.0249509566791479
0.000505839404261692 -0.0635233644796784 -0.0223563837134031
0.000586155489198667 -0.0607817021425449 -0.0189646082731326
0.000656730651358065 -0.0574556758029452 -0.0155257708685811
0.000706762593149612 -0.0537751969639143 -0.0124502060062784
0.000734894355827275 -0.0498522753331809 -0.00986564512656247
0.000744224823161008 -0.0457364020113222 -0.00775531908608335
0.00073897859455123 -0.0414619324578758 -0.0060526902798145
0.000722902923573848 -0.0370719054864155 -0.0046853964399872
-7.65904569873873E-5 -0.0322003400033399 0.00390758950276653
-3.70293665386514E-5 -0.0322637401472487 0.0039165950087582
1.18717498044915E-5 -0.0323358054596221 0.00391408804608635
6.66815232329918E-5 -0.0324144334003803 0.00391096946273327
0.000123735714328966 -0.0324967014823628 0.00391517857213233
0.000179668312912268 -0.03257915904096 0.00392937553252495
0.000231800369748552 -0.0326582393426868 0.00395010218175309
0.000278329607349396 -0.032730705349207 0.00396871694661169
0.000318332468041092 -0.0327940308625086 0.00397378846114905
0.000283750970209368 -0.196470282442267 0.0346928708412366
0.000398313777365843 -0.193076016481346 0.0312577928957383
0.000539561413025055 -0.18786108495863 0.0268006812674262
0.000669498409170585 -0.181409345181748 0.0223372508998282
0.000767704808800964 -0.174134960982025 0.0184274148399825
0.000827614228070181 -0.166253347684574 0.0152551927217639
0.000849294754859704 -0.157873542784283 0.0128152537951573
0.000834626990429675 -0.149081616445903 0.0110403817208502
0.000784994942428285 -0.139983351697843 0.0098608348974495
0.000700300035714286 -0.130713903571429 0.00922526071428571
0.000578455499100335 -0.121427388230992 0.00910564060248936
0.000415005538281194 -0.112277186288361 0.00949727733889387
0.000202895703278157 -0.103396291951439 0.0104173240886802
-6.71503314889666E-5 -0.0948872119251278 0.0119000708014716
-0.000404467522194213 -0.0868328126260412 0.0139811463612451
-0.000812157585528987 -0.0793423340375536 0.016654200009386
-0.00127361111943952 -0.0726419571400549 0.0197781616871363
-0.00173287171336653 -0.0671776682456067 0.0229408831609025
-0.002086246460523 -0.0635907438170407 0.0253986532927447
-0.00221995 -0.0623799 0.0263347
-0.00209785179232284 -0.0618950807925791 0.025359753718947
-0.00177943152728172 -0.0604326252912845 0.0227737834156855
-0.00137461521859487 -0.0581565536015883 0.0193891028347624
-0.000981797348469578 -0.0553035738536077 0.0159512592308315
-0.00065348719201507 -0.05204754446715 0.0128686817625249
-0.000405114853256758 -0.0484830708888613 0.0102691115693826
-0.000233852922406584 -0.0446620322179803 0.00813671523772022
-0.000131371345125245 -0.0406280169524826 0.00640623957228016
-8.98380975447067E-5 -0.0364341367954545 0.0050067066233088
0.000277668415109868 -0.199054969293354 0.0348311988199589
0.00038790437576143 -0.195981552657177 0.0313389710546756
0.000524861385612436 -0.192190409916945 0.0271033341120272
0.000636376978336204 -0.189080585362783 0.0237811193428761
0.000683444072684391 -0.187649289022298 0.0225244349914237
0.000649682583389435 -0.188261993471765 0.023725714619829
0.000544219750816402 -0.190630472521274 0.0270002496101304
0.000403609516656257 -0.193839190467592 0.0312019569388239
0.000284734730835427 -0.196557400458491 0.0346762253547099
0.000425769386080984 -0.037158859302126 0.00510976568741074
0.000506255725156806 -0.0414223439733311 0.00654138403352531
0.000596447495936492 -0.0455714789304732 0.00831274270808761
0.000701007162319769 -0.0495556681815713 0.0104969577082324
0.000825001263053808 -0.0533340661035057 0.0131613105656822
0.000971424749962341 -0.0568537420273576 0.0163223590987496
0.00113603600124833 -0.0600067768187652 0.0198492060081087
0.0012999097928433 -0.0625814326492566 0.0233226135430011
0.00142619320017384 -0.0642733604222805 0.0259769512808141
0.00147397 -0.064845 0.0269778
0.00143717895433083 -0.0659696475633439 0.0260161571732889
0.00134354326436152 -0.0693290825510883 0.0234910278061431
0.001229533383252 -0.0744980407035773 0.0202413159453113
0.00112609103036565 -0.0809026362804668 0.0170307822082824
0.00104780758674923 -0.0881345174923279 0.0142823801622096
0.000996379685332553 -0.0959805911193462 0.0121403896976414
0.000967078130358079 -0.104332380087171 0.0106105330304271
0.000953008616079688 -0.113103815507499 0.00965526776249588
0.000947056417276181 -0.122189132935556 0.00923828122892929
0.000942550357142857 -0.131453439285714 0.00934068214285715
0.000933379081283758 -0.140743211117951 0.0099657761151889
0.00091391035372849 -0.149906040121091 0.0111404911234624
0.000878877331710388 -0.158810309027545 0.0129153259127937
0.000823395180710903 -0.167355222921297 0.015359341678198
0.000743450988327488 -0.175459590530469 0.0185391647303814
0.000637568707077277 -0.183014715553127 0.0224594671032814
0.000510615715638708 -0.189791447566839 0.0269351917269
0.000379585169640189 -0.195333790170693 0.031404567766796
0.000276317737836015 -0.198981800636045 0.0348490274851928
0.0022508709845184 -0.197231973241338 -0.0331134904459847
0.00213265386975468 -0.194437156133764 -0.0283450382227833
0.00192540008146402 -0.191113666571376 -0.0204870388294113
0.00164543049541368 -0.188615187336329 -0.0104401845172256
0.00132126017903087 -0.187878965265866 0.000689293224699832
0.000986150026039532 -0.189208540445097 0.0118356970085469
0.00067678287297438 -0.192246893407062 0.0219279631260896
0.000431903805925041 -0.195998186188671 0.0298440330900011
0.00028270773666449 -0.199056907829474 0.0346604624931222
0.000382798866366436 -0.0328323398970327 0.00337420214951374
0.000415989020086815 -0.0328125091932579 0.0026883801868541
0.000451090434279097 -0.0327885520462212 0.00191053855813354
0.000487700059041005 -0.0327622063199071 0.00106444708412881
0.000525120857142857 -0.0327352238396369 0.000181992857142857
0.000562484813027581 -0.0327090635618183 -0.000700376502715577
0.000598958731330838 -0.0326846807811572 -0.00154626536292527
0.000633939938901776 -0.0326624623801401 -0.00232392751957072
0.000667152481502063 -0.0326423078291812 -0.0030097829094966
0.000292763734263816 -0.196547378210192 0.0345036938188688
0.000473968827028292 -0.193751327711157 0.0296913398402388
0.000787988934711507 -0.190325942718472 0.0217707261416582
0.0012127506628945 -0.187558320059905 0.0116555814583238
0.00171340918160377 -0.186361678816467 0.000461821698113206
0.00224905338596728 -0.187063839577782 -0.0107399922073422
0.0027676575603591 -0.189384841095982 -0.0208767712736407
0.0032016448417817 -0.192460930302785 -0.0288250748819219
0.00348196272343474 -0.1950450200375 -0.0336602675503411
0.0011414855701615 -0.0320873589180279 -0.00306214569665001
0.00102093896418257 -0.0320931797214337 -0.00237876631766132
0.000881571204601021 -0.0321004150228255 -0.00160384009205173
0.00072840900665898 -0.0321080684843348 -0.000761007557766914
0.000567977142857143 -0.0321153229109789 0.000118007142857143
0.000407602121272435 -0.0321217551351713 0.000996936976353683
0.000254575629789044 -0.0321274456510277 0.00183956689684346
0.000115328076828843 -0.0321329422063999 0.00261431365037794
-5.24091802999716E-6 -0.0321390868569897 0.00329772645663288
0.000667301493812286 -0.0281848284186445 -0.00271526177657917
0.000628665671430544 -0.0238223628497316 -0.00201899234737439
0.000580840855722629 -0.0195945441844287 -0.00146742132441313
0.00052061541542716 -0.0155453595013289 -0.00103276582613035
0.000444150519244983 -0.0117099118070208 -0.000692591628883574
0.000348885532561974 -0.00813676414193406 -0.00042984904571943
0.0002374771338231 -0.00493211861061674 -0.000233447401896899
0.000123505277007975 -0.00231050718457226 -9.82862844615132E-5
3.41336896243459E-5 -0.000584228252378963 -2.24062370376389E-5
4.20412114393939E-5 -0.00054541901074759 -1.92289427648485E-5
0.000193266532187569 -0.00196850141151753 -7.03798072970141E-5
0.000479385366813584 -0.00367838853346258 -0.00013307412009651
0.000909780232875713 -0.00500354918310262 -0.000182731239157306
0.00148107766705302 -0.00548214639009364 -0.000201597344354536
0.00217169264778017 -0.00496582720590028 -0.000183379322361798
0.00292233668671949 -0.00362431784960435 -0.000134017879089005
0.0036180746721205 -0.00192679787747376 -7.11275038744385E-5
0.0041074632970916 -0.000530830854263 -1.95007014478547E-5
0.00411763833784107 -0.000567167684910868 -2.2793700633153E-5
0.00369846288825793 -0.00224862700900844 -9.99541090787108E-5
0.0031615368951918 -0.00481270753897997 -0.000237332118444299
0.00263403967962211 -0.00795984488174951 -0.000436857517454888
0.00218400101049237 -0.0114805745261333 -0.000703643579747358
0.00183129935095255 -0.0152674706289216 -0.00104887276924457
0.00157184043803184 -0.0192674172052665 -0.00148975052726797
0.00139398868096777 -0.0234394258798929 -0.00204890575323676
0.0012862610069988 -0.0277331652658543 -0.00275433685527688
-1.97750653463828E-6 -0.0036832390185502 2.7995003758533E-5
-3.34653219441396E-6 -0.00505076336208383 0.000120674297935941
3.45041848587555E-6 -0.00720722476622921 0.000281910225297298
2.31308680154441E-5 -0.00994568538478745 0.000511000498111151
5.64048249023212E-5 -0.0131076917989558 0.000811229726209309
0.00010145671332869 -0.0166024812133557 0.00119289304643046
0.00015561694460339 -0.0203762675422567 0.00167283631888189
0.000216390827437252 -0.0243816885556319 0.00227348789331586
0.00028198994310886 -0.0285617484551619 0.00302262591818547
-0.00283747752420625 -0.000782056907990552 2.40034219908253E-5
-0.00241774056838474 -0.00223120836411053 8.76764581809469E-5
-0.00184360922403723 -0.00406232366724584 0.000165541018297451
-0.00125828400538157 -0.0056492456372042 0.000227115803993932
-0.000762863275972408 -0.00654013760632061 0.0002504824215415
-0.00040000474065092 -0.00655952208579906 0.000227893015222318
-0.000170425453956376 -0.00581094253113844 0.000166671816192252
-5.12678400680694E-5 -0.00465813813876187 8.85710274558605E-5
-7.22285382064088E-6 -0.00363783307511164 2.43279065566697E-5
-0.000172695936436505 -0.0278404604300712 0.00296435403841727
-0.000297449682183687 -0.0235887322732922 0.00223056512363257
-0.000484068714184057 -0.0194548726533913 0.00164187312186582
-0.000741195629018577 -0.0154872868306952 0.00117122424266765
-0.00107797086581898 -0.0117247207210804 0.000796754715214258
-0.00149713246022737 -0.00821818126631209 0.000502036719731326
-0.00198035862646729 -0.00507413820987697 0.000277045246864094
-0.00246685674117689 -0.00250391077100646 0.000118624337897972
-0.00284391549766017 -0.000812977819203239 2.75266326933214E-5
0.00410020382948574 -0.000531113141395465 -1.53140259501056E-5
0.00355455867786797 -0.00192968686312401 -4.02720226630836E-5
0.00270259980133907 -0.0036356704429513 -4.59837776333466E-5
0.00166484323181294 -0.00499499640419384 -2.14224737272016E-5
0.000555181543739279 -0.00554063803532876 2.25218696397942E-5
-0.00053813972455528 -0.00510266528808192 6.2383062239836E-5
-0.00153202471419868 -0.00382561647005486 7.59980380318934E-5
-0.00232786471466623 -0.00216286424603396 5.62921230247411E-5
-0.00282722837708622 -0.00077425504170527 1.97449880965696E-5
3.66137852181006E-8 -0.00363755078797918 2.01412310589206E-5
1.22481541844661E-5 -0.00465524915311161 5.77155462445057E-5
4.93114314240502E-5 -0.00579958993779148 7.86377147365932E-5
0.000106844675316311 -0.0065303528875055 6.59361665877225E-5
0.000163032847341338 -0.00648164596108549 2.63632075471698E-5
0.000189635952049423 -0.0055501295322249 -1.79984974032098E-5
0.00016780085697503 -0.00391509573065355 -4.35311398309521E-5
0.000103390678469053 -0.00203684552959409 -3.89954721408083E-5
3.17920643193671E-5 -0.000553220877032872 -1.49705088705928E-5
0.000761117430398575 -0.0370344073110533 -0.00470980546845597
0.000807032150623328 -0.0369453135292875 -0.00469253180918546
0.00086049346173592 -0.0368296800091379 -0.00465676930992028
0.00092048024785784 -0.0367144172902344 -0.00462640705768401
0.000984955870963619 -0.0366208724172099 -0.00461912683383926
0.00105087351720107 -0.0365592039895731 -0.00464123614918152
0.0011143929307947 -0.0365260807350422 -0.00468579737326349
0.0011713263662243 -0.0365062141504891 -0.00473457645506736
0.00121775881053483 -0.0364773189505709 -0.00476327272459239
0.000777468634982282 -0.0414160526801794 -0.00605818707025117
0.000824971860603165 -0.0412681903910258 -0.00599201698757692
0.000881676752717398 -0.0410717747428548 -0.00589815385154816
0.000946750016613035 -0.0408840589843168 -0.00582263179908842
0.00101809546459902 -0.0407496226509313 -0.00579966589282037
0.00109224650346576 -0.0406881622354028 -0.00584155017120108
0.00116449811021863 -0.0406897873317864 -0.00593506793731029
0.00122939276706222 -0.0407187214112699 -0.00604519512774771
0.00128158812096137 -0.0407245119668382 -0.00612530044382993
0.000784576048695219 -0.0456575941131076 -0.00771807652131544
0.000836920826219455 -0.0454154222338817 -0.00755992045784828
0.000902010534544443 -0.0450999873262771 -0.0073601018298962
0.000979279600022311 -0.0448087577736306 -0.0072028660166985
0.00106645668573394 -0.0446172764763762 -0.00715092296467544
0.00115922475457247 -0.0445580857476219 -0.00722685956511626
0.00125112692182389 -0.0446129239923778 -0.00740673094424272
0.00133406848465198 -0.0447191923604678 -0.00762664511936858
0.00139968081226051 -0.0447894581973994 -0.00780151079560764
0.000778021930737991 -0.0497090768473035 -0.00974980385473559
0.000838096854093068 -0.0493227430974144 -0.00943156645715802
0.000916747977223205 -0.0488331198848319 -0.00904908054715411
0.00101384989012811 -0.0483935284765223 -0.00875132678231303
0.00112695738187429 -0.0481223643940008 -0.00864892776221804
0.00125054451202911 -0.0480698939298497 -0.00878164195368887
0.00137537588178879 -0.0482066087456846 -0.00910771340549214
0.00148885645457079 -0.0484331943377576 -0.00951479610717682
0.00157722361500366 -0.0486112226762311 -0.00985272614175038
0.000752564368298482 -0.0535357170888537 -0.0122089794837219
0.000822672346976982 -0.0529458024853984 -0.0116325028451638
0.000920006284725487 -0.0522130999430019 -0.0109541188340754
0.00104512983929303 -0.0515685718354729 -0.010428698468692
0.00119557823862604 -0.0511892892188969 -0.0102439630683498
0.00136441759865051 -0.0511494292691728 -0.0104668769512033
0.00153849018653108 -0.0514045742961992 -0.0110275600455293
0.00169813665582652 -0.0518056500119932 -0.0117357882784726
0.00182062801863962 -0.0521439178687332 -0.0123350440733371
0.000703762313260785 -0.0570972588978707 -0.0151097791919095
0.000785289331774234 -0.0562453472085161 -0.0141513327644443
0.000905987281261793 -0.0551968813380132 -0.0130293239263295
0.00106733385939342 -0.0542868056796167 -0.012162122372855
0.00126713563932317 -0.0537686143453002 -0.0118533651214213
0.00149713588092195 -0.0537468156654411 -0.0122099076314772
0.00173916008137898 -0.0541584670236191 -0.0131207186749859
0.00196320331875865 -0.0547905792895442 -0.0142785672314469
0.00213251025304806 -0.0553413363751281 -0.0152628001126507
0.000631631682813482 -0.0603030422592989 -0.0183412041524025
0.000724612692786038 -0.0591532087080315 -0.0168801461290751
0.00087193632748579 -0.0577367208979242 -0.0151622393060399
0.00107601344328335 -0.0565161388692262 -0.0138351016554315
0.00133522124577701 -0.0558352518437649 -0.0133593427653577
0.00164041197662806 -0.0558331320452584 -0.0138940176287534
0.00196768942345504 -0.0564264673312615 -0.0152743016549315
0.00227324799406117 -0.0573283519019418 -0.0170345608208317
0.00250033042562926 -0.0581246070198779 -0.0185240537567091
0.00054662059178935 -0.0629532864611088 -0.0215355381621723
0.000649350790843187 -0.0615262938423966 -0.019521868277565
0.000823225073961954 -0.0597539625292835 -0.0171313061747058
0.00107130609057471 -0.0582298873595274 -0.0152833139772242
0.00139262168948322 -0.0573871984743882 -0.0146185241752813
0.00177769474046032 -0.0573979965683661 -0.0153536932459864
0.00219696582452421 -0.0581609413214529 -0.0172645340119729
0.00259081857400417 -0.0593185242664864 -0.0197037521864757
0.00287835819549953 -0.0603438210210984 -0.0217478006742796
0.000473768841532211 -0.0647333657680429 -0.0239970084590644
0.000582857287346408 -0.0631374267734078 -0.0215405556835292
0.000777395017750624 -0.0611332756994239 -0.0185934650803559
0.00106078877262473 -0.0594047274034473 -0.0163108255975443
0.00143244445499923 -0.0584460823839319 -0.015488006154346
0.00188266704938102 -0.0584522435465546 -0.0163904584607922
0.0023771820869179 -0.0593120763273062 -0.0187436503945829
0.00284262410217291 -0.0606233227781457 -0.02174412100504
0.00317699708318619 -0.0617844700029892 -0.0242319257258499
0.000454356628938062 -0.0669492101797994 -0.0249654845938621
0.000591303047219716 -0.0694977815744384 -0.0224261757593354
0.00082496087615587 -0.0724846123555458 -0.0193597613045043
0.00114700400068362 -0.0746478682760346 -0.0169780769217532
0.00154847392259863 -0.075122712864494 -0.0161190463121784
0.00201622511445554 -0.073642583363041 -0.0170622935963107
0.00251621112757263 -0.0705664254906274 -0.0195179236016325
0.00297752347074015 -0.0668588516792421 -0.0226391540502369
0.00330238101540998 -0.0638679300224085 -0.0252093650369336
0.000494614354672316 -0.068054446801495 -0.0240537257260413
0.000629742833863292 -0.0706509807278987 -0.0216704147817464
0.000855250603811559 -0.073687551571601 -0.0188123668857509
0.00116238888686506 -0.0758937104754418 -0.0166000139903423
0.00154235533893145 -0.0764007725963481 -0.0158038193577409
0.0019829400137311 -0.0749387889892604 -0.0166804554417308
0.00245304160677879 -0.0718626716141968 -0.0189637738976459
0.00288775398433625 -0.0681336183020493 -0.0218750628608336
0.00319683679742919 -0.0651036672376733 -0.0242892699208729
0.000598351110093989 -0.0711898009542694 -0.0216915029041817
0.000724026396663051 -0.0734982845357455 -0.0197513039192637
0.000924984896423283 -0.0761887899614867 -0.0174490538773877
0.00119368506475842 -0.0781476258843903 -0.0156706371085471
0.00152196049010425 -0.0786035103550033 -0.0150323003757631
0.00189815519192562 -0.0773124316500246 -0.0157420997470682
0.00229560168133954 -0.0745903679548745 -0.0175840542225481
0.00266215536927475 -0.0712847037318162 -0.0199350973710573
0.00292711840772476 -0.0685751166103191 -0.0219054832415498
0.000730290059617738 -0.0759930140735014 -0.018671425630108
0.00084098767316815 -0.0778120924306951 -0.0172775721386559
0.0010091602899069 -0.0799329175062819 -0.0156391348277331
0.00122892028021023 -0.08147926243649 -0.0143745115504037
0.0014929560002463 -0.0818321426121128 -0.0139227109516516
0.00179042147234646 -0.0807915807407776 -0.0144349417839681
0.00209983528632822 -0.0786144363382323 -0.0157538644038731
0.00238337148884724 -0.0759770363785708 -0.0174352977303137
0.00259220867989027 -0.0738034087233577 -0.0188579081748328
0.000860544200211704 -0.081982795589377 -0.015693491778943
0.000953926020087073 -0.0832728175007544 -0.0147927731583258
0.00108870161960153 -0.0847917097960253 -0.0137376493595656
0.00126033166689631 -0.0858999768774646 -0.0129229372691934
0.0014624748902286 -0.0861375689690051 -0.0126345733953714
0.00168568040434321 -0.0853532549143154 -0.0129728740200678
0.00191366707612669 -0.0837408358908935 -0.0138330297298645
0.00212088615362731 -0.0818013019871546 -0.0149253729902151
0.00227632074890804 -0.0802068412344568 -0.0158529437336377
0.000975574280036446 -0.0888285820946294 -0.0131343148062937
0.00105197476833799 -0.089655636144442 -0.012605951947005
0.00115708547915093 -0.0906553632535671 -0.0119816930041891
0.00128734429577374 -0.0913845013663631 -0.0114985293506245
0.00143746478693182 -0.0915203267045454 -0.0113305954545455
0.00159977268891146 -0.0909556429073293 -0.0115397682494557
0.00176254966904173 -0.089828316660204 -0.0120609739355331
0.0019093111686831 -0.0884895095499168 -0.0127174406890743
0.00202129451330578 -0.0874044401997524 -0.0132706177871204
0.00107410018976404 -0.0963603520884092 -0.0111214986559487
0.00113549107097916 -0.0968328667616988 -0.0108434226209202
0.00121630258296011 -0.0974354358234707 -0.0105039433574531
0.00131373228401838 -0.0978732554367421 -0.0102393947799129
0.00142356417639284 -0.0979306041284206 -0.0101507282822931
0.00153991859477532 -0.097535667641827 -0.0102740370568332
0.00165466998336618 -0.0967819065663475 -0.0105709639395323
0.00175744771736138 -0.0959046291486434 -0.0109386848112466
0.00183717144077228 -0.0952134637243809 -0.0112397097138415
0.00116027886393592 -0.104481566721745 -0.00966473648963208
0.00120940442374658 -0.104709861173669 -0.00954087830679433
0.00127145497453662 -0.105032779006432 -0.00937478006877543
0.00134427996451893 -0.105263424505055 -0.00924299993865619
0.00142465899458343 -0.105265161723552 -0.00920232713490855
0.00150826540284148 -0.104992868293847 -0.00927305794215241
0.00158956902387009 -0.104506926753644 -0.00943325292481466
0.00166207251580795 -0.103957580261532 -0.00962475057900986
0.00171923432057801 -0.103541942822498 -0.00977010103757722
0.00123940657273201 -0.113097216043762 -0.00873852090272791
0.00127920931737666 -0.113173121238788 -0.00870185258609396
0.00132756938819845 -0.11331019667936 -0.0086329007433681
0.00138292734505007 -0.113399964814761 -0.0085753286135521
0.00144292009238139 -0.113363649446489 -0.00856143014440444
0.00150442161107056 -0.113175968522465 -0.00860266710945027
0.00156362952020741 -0.112873243655156 -0.00868630508528922
0.00161634590456386 -0.112544011926765 -0.00877897215151408
0.00165855097504931 -0.112304075786262 -0.00883626623120033
0.00131607175643045 -0.122079930614806 -0.00831842911922775
0.00134932544487702 -0.122067275017095 -0.00832401822687587
0.00138834914797662 -0.122081466160196 -0.00830154950737557
0.00143214652020909 -0.122073796669463 -0.00827937499463773
0.00147906019679883 -0.122009656624187 -0.00827835050803663
0.0015268040898593 -0.121879191391487 -0.00830579196075392
0.00157259702909381 -0.12170080012216 -0.00835327529367405
0.00161344048271291 -0.121516604443752 -0.00839899083757587
0.0016465337189804 -0.121380947652975 -0.00841390066527182
0.00139364859484715 -0.131265896028325 -0.00839335574575033
0.00142270387694864 -0.131195981143146 -0.00840859503803063
0.00145593185757638 -0.131116869239695 -0.00839587103552962
0.00149293095937989 -0.131030782285606 -0.00838101141329421
0.00153263755357143 -0.130940828571429 -0.00838297142857143
0.00157328746066458 -0.130850685398352 -0.00840836257753031
0.00161253865008436 -0.13076414612559 -0.00844944300011943
0.00164776149408127 -0.130684633565457 -0.00848626979905437
0.0016764452262972 -0.130614793303907 -0.00849228009104945
0.00147437595014643 -0.140469224238289 -0.00896865382993939
0.00150094898032614 -0.140338896617163 -0.00896299956900397
0.00153104278796841 -0.140161766550127 -0.00892566471343789
0.00156499764729983 -0.139991284980479 -0.00889191409989316
0.0016023241341434 -0.139868765074951 -0.00888773251013483
0.00164152446391007 -0.139812027262277 -0.00892225164127423
0.00168017283633879 -0.139810924008467 -0.00898499455108947
0.00171526318023535 -0.139830811751465 -0.00904878651260834
0.00174375387882556 -0.139823132396767 -0.00907745936932107
0.00155964569546549 -0.14950514867728 -0.0100669639760986
0.00158460012615326 -0.149276835597273 -0.0100013437643156
0.00161324269664279 -0.148962499573933 -0.00989568372715596
0.00164700138907541 -0.148676291127784 -0.00980973666832102
0.00168609486685529 -0.148505205918537 -0.00978775936685422
0.00172910706840277 -0.148484396184276 -0.00984546124427058
0.00177298751469645 -0.148587874605081 -0.00996535002171117
0.001813518357001 -0.148736583120407 -0.0101015735086551
0.00184618201487695 -0.148822080529432 -0.0101931537441286
0.00165031170599243 -0.158213212407636 -0.0117283080073855
0.0016734019284954 -0.157816948873404 -0.0115438470525992
0.00170112512260061 -0.157292320802821 -0.0113039641562938
0.00173665871931062 -0.156833559291859 -0.0111155504971692
0.00178129542481473 -0.156588240799287 -0.0110579766771932
0.00183359798464762 -0.156614765112648 -0.0111595783796401
0.00188925027461798 -0.156866847034584 -0.0113895241400216
0.00194171213494151 -0.157207415259625 -0.0116661765705923
0.0019836741596267 -0.157449679291897 -0.0118808812207523
0.00174687785528565 -0.166471414821498 -0.0140066776607411
0.00176645708592214 -0.165809564009044 -0.0136132365021628
0.00179239067794599 -0.164969901265655 -0.0131371323293808
0.00183073416046088 -0.164257174524708 -0.0127681891524801
0.00188454835556543 -0.163902280532865 -0.0126471008705249
0.00195237509687401 -0.163995547369715 -0.0128241119918875
0.0020278161902347 -0.164463471518583 -0.0132454249519606
0.00210042205672434 -0.165089869612662 -0.0137670456842312
0.00215811244867498 -0.165580362448599 -0.014196527232051
0.00184937074529142 -0.174190930159723 -0.0169539403733372
0.00186216150335044 -0.173148103672411 -0.0162218802901461
0.00188378493279225 -0.171864134985574 -0.0153597011851901
0.00192491984687206 -0.170796166408585 -0.0146950883364597
0.00199149845738636 -0.170288285795454 -0.0144690681818182
0.00208217473058162 -0.170473626672171 -0.0147672333745284
0.00218744192135005 -0.171242710777448 -0.0154989703756832
0.0022907020843889 -0.172272514729636 -0.0164184284597912
0.00237214544931194 -0.173120876556982 -0.0171939534785012
0.00195656297477418 -0.181278387395525 -0.0205711139174112
0.00195779419293935 -0.179742618134402 -0.0193361530152162